 &FCI NORB=2, NELEC=2, MS2=0,
  ORBSYM=1,1,
  ISYM=1,
 &END
  0.675  1  1  1  1
  0.665  2  2  1  1
  0.181  2  1  2  1
  0.697  2  2  2  2
 -1.252  1  1  0  0
 -0.476  2  2  0  0
  0.719  0  0  0  0
